	1	          0	1	0	+	e	X3Sig-	0	0	0	0
	2	1138.022929	1	0	+	e	X3Sig-	1	0	0	0
	3	2263.340264	1	0	+	e	X3Sig-	2	0	0	0
	4	3376.019965	1	0	+	e	X3Sig-	3	0	0	0
	5	4476.099522	1	0	+	e	X3Sig-	4	0	0	0
	6	5563.597787	1	0	+	e	X3Sig-	5	0	0	0
	7	6638.518069	1	0	+	e	X3Sig-	6	0	0	0
	8	7700.849921	1	0	+	e	X3Sig-	7	0	0	0
	9	8750.570553	1	0	+	e	X3Sig-	8	0	0	0
	10	9787.645694	1	0	+	e	X3Sig-	9	0	0	0
	11	10812.03035	1	0	+	e	X3Sig-	10	0	0	0
	12	11823.66944	1	0	+	e	X3Sig-	11	0	0	0
	13	12822.49832	1	0	+	e	X3Sig-	12	0	0	0
	14	13808.44326	1	0	+	e	X3Sig-	13	0	0	0
	15	14781.42183	1	0	+	e	X3Sig-	14	0	0	0
	16	15741.3433	1	0	+	e	X3Sig-	15	0	0	0
	17	16688.10897	1	0	+	e	X3Sig-	16	0	0	0
	18	17621.61247	1	0	+	e	X3Sig-	17	0	0	0
	19	18541.74001	1	0	+	e	X3Sig-	18	0	0	0
	20	19448.37067	1	0	+	e	X3Sig-	19	0	0	0
	21	20341.37657	1	0	+	e	X3Sig-	20	0	0	0
	22	21220.62309	1	0	+	e	X3Sig-	21	0	0	0
	23	22085.96905	1	0	+	e	X3Sig-	22	0	0	0
	24	22937.26688	1	0	+	e	X3Sig-	23	0	0	0
	25	23774.36271	1	0	+	e	X3Sig-	24	0	0	0
	26	24597.09653	1	0	+	e	X3Sig-	25	0	0	0
	27	25405.30228	1	0	+	e	X3Sig-	26	0	0	0
	28	26198.80792	1	0	+	e	X3Sig-	27	0	0	0
	29	26977.43554	1	0	+	e	X3Sig-	28	0	0	0
	30	27741.00138	1	0	+	e	X3Sig-	29	0	0	0
	31	28489.31592	1	0	+	e	X3Sig-	30	0	0	0
	32	29222.18385	1	0	+	e	X3Sig-	31	0	0	0
	33	29939.40416	1	0	+	e	X3Sig-	32	0	0	0
	34	30640.77012	1	0	+	e	X3Sig-	33	0	0	0
	35	31326.06927	1	0	+	e	X3Sig-	34	0	0	0
	36	31995.08346	1	0	+	e	X3Sig-	35	0	0	0
	37	32647.5888	1	0	+	e	X3Sig-	36	0	0	0
	38	33283.35566	1	0	+	e	X3Sig-	37	0	0	0
	39	33902.14864	1	0	+	e	X3Sig-	38	0	0	0
	40	34503.72655	1	0	+	e	X3Sig-	39	0	0	0
	41	35087.8424	1	0	+	e	X3Sig-	40	0	0	0
	42	35654.24333	1	0	+	e	X3Sig-	41	0	0	0
	43	36202.67064	1	0	+	e	X3Sig-	42	0	0	0
	44	36732.85971	1	0	+	e	X3Sig-	43	0	0	0
	45	37244.54005	1	0	+	e	X3Sig-	44	0	0	0
	46	37737.43525	1	0	+	e	X3Sig-	45	0	0	0
	47	38211.26301	1	0	+	e	X3Sig-	46	0	0	0
	48	38665.7352	1	0	+	e	X3Sig-	47	0	0	0
	49	39100.55788	1	0	+	e	X3Sig-	48	0	0	0
	50	39515.43141	1	0	+	e	X3Sig-	49	0	0	0
	51	39910.05062	1	0	+	e	X3Sig-	50	0	0	0
	52	40284.10497	1	0	+	e	X3Sig-	51	0	0	0
	53	40637.27885	1	0	+	e	X3Sig-	52	0	0	0
	54	40969.25192	1	0	+	e	X3Sig-	53	0	0	0
	55	41279.69963	1	0	+	e	X3Sig-	54	0	0	0
	56	41568.29383	1	0	+	e	X3Sig-	55	0	0	0
	57	41834.70361	1	0	+	e	X3Sig-	56	0	0	0
	58	42078.59645	1	0	+	e	X3Sig-	57	0	0	0
	59	42299.63963	1	0	+	e	X3Sig-	58	0	0	0
	60	42497.50221	1	0	+	e	X3Sig-	59	0	0	0
	61	42671.85767	1	0	+	e	X3Sig-	60	0	0	0
	62	42822.3875	1	0	+	e	X3Sig-	61	0	0	0
	63	42948.78635	1	0	+	e	X3Sig-	62	0	0	0
	64	43050.76954	1	0	+	e	X3Sig-	63	0	0	0
	65	43128.0848	1	0	+	e	X3Sig-	64	0	0	0
	66	43180.53225	1	0	+	e	X3Sig-	65	0	0	0
	67	43208.39009	1	0	+	e	X3Sig-	66	0	0	0
	68	43223.23459	1	0	+	e	X3Sig-	67	0	0	0
	69	43243.26758	1	0	+	e	X3Sig-	68	0	0	0
	70	43268.84034	1	0	+	e	X3Sig-	69	0	0	0
	71	43299.08228	1	0	+	e	X3Sig-	70	0	0	0
	72	43333.50197	1	0	+	e	X3Sig-	71	0	0	0
	73	43371.76775	1	0	+	e	X3Sig-	72	0	0	0
	74	43413.63489	1	0	+	e	X3Sig-	73	0	0	0
	75	43458.9125	1	0	+	e	X3Sig-	74	0	0	0
	76	43507.44592	1	0	+	e	X3Sig-	75	0	0	0
	77	43559.10623	1	0	+	e	X3Sig-	76	0	0	0
	78	43613.78369	1	0	+	e	X3Sig-	77	0	0	0
	79	43671.38329	1	0	+	e	X3Sig-	78	0	0	0
	80	43731.82161	1	0	+	e	X3Sig-	79	0	0	0
	81	43795.02464	1	0	+	e	X3Sig-	80	0	0	0
	82	43860.92603	1	0	+	e	X3Sig-	81	0	0	0
	83	43929.46584	1	0	+	e	X3Sig-	82	0	0	0
	84	44000.58956	1	0	+	e	X3Sig-	83	0	0	0
	85	44074.2473	1	0	+	e	X3Sig-	84	0	0	0
	86	44148.88275	1	0	+	e	C3Pi	0	1	-1	0
	87	44150.39315	1	0	+	e	X3Sig-	85	0	0	0
	88	44228.98468	1	0	+	e	X3Sig-	86	0	0	0
	89	44309.98251	1	0	+	e	X3Sig-	87	0	0	0
	90	44393.34992	1	0	+	e	X3Sig-	88	0	0	0
	91	44479.05263	1	0	+	e	X3Sig-	89	0	0	0
	92	44567.05845	1	0	+	e	X3Sig-	90	0	0	0
	93	44657.33713	1	0	+	e	X3Sig-	91	0	0	0
	94	44749.86015	1	0	+	e	X3Sig-	92	0	0	0
	95	44841.54407	1	0	+	e	C3Pi	1	1	-1	0
	96	44844.60056	1	0	+	e	X3Sig-	93	0	0	0
	97	44941.53284	1	0	+	e	X3Sig-	94	0	0	0
	98	45040.63276	1	0	+	e	X3Sig-	95	0	0	0
	99	45141.87731	1	0	+	e	X3Sig-	96	0	0	0
	100	45245.24458	1	0	+	e	X3Sig-	97	0	0	0
	101	45350.71366	1	0	+	e	X3Sig-	98	0	0	0
	102	45458.26476	1	0	+	e	X3Sig-	99	0	0	0
	103	45519.84072	1	0	+	e	C3Pi	2	1	-1	0
	104	46181.25659	1	0	+	e	C3Pi	3	1	-1	0
	105	46825.33175	1	0	+	e	C3Pi	4	1	-1	0
	106	47450.76679	1	0	+	e	C3Pi	5	1	-1	0
	107	48054.72377	1	0	+	e	C3Pi	6	1	-1	0
	108	48634.44304	1	0	+	e	C3Pi	7	1	-1	0
	109	49187.30946	1	0	+	e	C3Pi	8	1	-1	0
	110	49711.22667	1	0	+	e	C3Pi	9	1	-1	0
	111	50205.16776	1	0	+	e	C3Pi	10	1	-1	0
	112	50669.18696	1	0	+	e	C3Pi	11	1	-1	0
	113	51103.78513	1	0	+	e	C3Pi	12	1	-1	0
	114	51508.61287	1	0	+	e	C3Pi	13	1	-1	0
	115	51880.42789	1	0	+	e	C3Pi	14	1	-1	0
	116	52209.09162	1	0	+	e	C3Pi	15	1	-1	0
	117	52460.58733	1	0	+	e	C3Pi	16	1	-1	0
	118	52500.81662	1	0	+	e	C3Pi	17	1	-1	0
	119	52505.26049	1	0	+	e	C3Pi	18	1	-1	0
	120	52512.56926	1	0	+	e	C3Pi	19	1	-1	0
	121	52522.63555	1	0	+	e	C3Pi	20	1	-1	0
	122	52535.35162	1	0	+	e	C3Pi	21	1	-1	0
	123	52550.61631	1	0	+	e	C3Pi	22	1	-1	0
	124	52568.33663	1	0	+	e	C3Pi	23	1	-1	0
	125	52588.43033	1	0	+	e	C3Pi	24	1	-1	0
	126	52610.83066	1	0	+	e	C3Pi	25	1	-1	0
	127	52635.49103	1	0	+	e	C3Pi	26	1	-1	0
	128	52662.38562	1	0	+	e	C3Pi	27	1	-1	0
	129	52691.50364	1	0	+	e	C3Pi	28	1	-1	0
	130	52722.83907	1	0	+	e	C3Pi	29	1	-1	0
	131	52756.38104	1	0	+	e	C3Pi	30	1	-1	0
	132	52792.109	1	0	+	e	C3Pi	31	1	-1	0
	133	52829.99337	1	0	+	e	C3Pi	32	1	-1	0
	134	52869.99966	1	0	+	e	C3Pi	33	1	-1	0
	135	52912.09329	1	0	+	e	C3Pi	34	1	-1	0
	136	52956.24325	1	0	+	e	C3Pi	35	1	-1	0
	137	53002.42356	1	0	+	e	C3Pi	36	1	-1	0
	138	53050.61302	1	0	+	e	C3Pi	37	1	-1	0
	201	44148.88275	1	0	-	f	C3Pi	0	-1	1	0
	202	44841.54407	1	0	-	f	C3Pi	1	-1	1	0
	203	45519.84072	1	0	-	f	C3Pi	2	-1	1	0
	204	46181.25659	1	0	-	f	C3Pi	3	-1	1	0
	205	46825.33175	1	0	-	f	C3Pi	4	-1	1	0
	206	47450.76679	1	0	-	f	C3Pi	5	-1	1	0
	207	48054.72377	1	0	-	f	C3Pi	6	-1	1	0
	208	48634.44304	1	0	-	f	C3Pi	7	-1	1	0
	209	49187.30946	1	0	-	f	C3Pi	8	-1	1	0
	210	49711.22667	1	0	-	f	C3Pi	9	-1	1	0
	211	50205.16776	1	0	-	f	C3Pi	10	-1	1	0
	212	50669.18696	1	0	-	f	C3Pi	11	-1	1	0
	213	51103.78513	1	0	-	f	C3Pi	12	-1	1	0
	214	51508.61287	1	0	-	f	C3Pi	13	-1	1	0
	215	51880.42789	1	0	-	f	C3Pi	14	-1	1	0
	216	52209.09162	1	0	-	f	C3Pi	15	-1	1	0
	217	52460.58733	1	0	-	f	C3Pi	16	-1	1	0
	218	52500.81662	1	0	-	f	C3Pi	17	-1	1	0
	219	52505.26049	1	0	-	f	C3Pi	18	-1	1	0
	220	52512.56926	1	0	-	f	C3Pi	19	-1	1	0
	221	52522.63555	1	0	-	f	C3Pi	20	-1	1	0
	222	52535.35162	1	0	-	f	C3Pi	21	-1	1	0
	223	52550.61631	1	0	-	f	C3Pi	22	-1	1	0
	224	52568.33663	1	0	-	f	C3Pi	23	-1	1	0
	225	52588.43033	1	0	-	f	C3Pi	24	-1	1	0
	226	52610.83066	1	0	-	f	C3Pi	25	-1	1	0
	227	52635.49103	1	0	-	f	C3Pi	26	-1	1	0
	228	52662.38562	1	0	-	f	C3Pi	27	-1	1	0
	229	52691.50364	1	0	-	f	C3Pi	28	-1	1	0
	230	52722.83907	1	0	-	f	C3Pi	29	-1	1	0
	231	52756.38104	1	0	-	f	C3Pi	30	-1	1	0
	232	52792.109	1	0	-	f	C3Pi	31	-1	1	0
	233	52829.99337	1	0	-	f	C3Pi	32	-1	1	0
	234	52869.99966	1	0	-	f	C3Pi	33	-1	1	0
	235	52912.09329	1	0	-	f	C3Pi	34	-1	1	0
	236	52956.24325	1	0	-	f	C3Pi	35	-1	1	0
	237	53002.42356	1	0	-	f	C3Pi	36	-1	1	0
	238	53050.61302	1	0	-	f	C3Pi	37	-1	1	0
	301	0	3	1	+	f	X3Sig-	0	0	1	1
	302	1138.022929	3	1	+	f	X3Sig-	1	0	1	1
	303	2263.340264	3	1	+	f	X3Sig-	2	0	1	1
	304	3376.019965	3	1	+	f	X3Sig-	3	0	1	1
	305	4476.099522	3	1	+	f	X3Sig-	4	0	1	1
	306	5563.597787	3	1	+	f	X3Sig-	5	0	1	1
	307	6638.518069	3	1	+	f	X3Sig-	6	0	1	1
	308	7700.849921	3	1	+	f	X3Sig-	7	0	1	1
	309	8750.570553	3	1	+	f	X3Sig-	8	0	1	1
	310	9787.645694	3	1	+	f	X3Sig-	9	0	1	1
	311	10812.03035	3	1	+	f	X3Sig-	10	0	1	1
	312	11823.66944	3	1	+	f	X3Sig-	11	0	1	1
	313	12822.49832	3	1	+	f	X3Sig-	12	0	1	1
	314	13808.44326	3	1	+	f	X3Sig-	13	0	1	1
	315	14781.42183	3	1	+	f	X3Sig-	14	0	1	1
	316	15741.3433	3	1	+	f	X3Sig-	15	0	1	1
	317	16688.10897	3	1	+	f	X3Sig-	16	0	1	1
	318	17621.61247	3	1	+	f	X3Sig-	17	0	1	1
	319	18541.74001	3	1	+	f	X3Sig-	18	0	1	1
	320	19448.37067	3	1	+	f	X3Sig-	19	0	1	1
	321	20341.37657	3	1	+	f	X3Sig-	20	0	1	1
	322	21220.62309	3	1	+	f	X3Sig-	21	0	1	1
	323	22085.96905	3	1	+	f	X3Sig-	22	0	1	1
	324	22937.26688	3	1	+	f	X3Sig-	23	0	1	1
	325	23774.36271	3	1	+	f	X3Sig-	24	0	1	1
	326	24597.09653	3	1	+	f	X3Sig-	25	0	1	1
	327	25405.30228	3	1	+	f	X3Sig-	26	0	1	1
	328	26198.80792	3	1	+	f	X3Sig-	27	0	1	1
	329	26977.43554	3	1	+	f	X3Sig-	28	0	1	1
	330	27741.00138	3	1	+	f	X3Sig-	29	0	1	1
	331	28489.31592	3	1	+	f	X3Sig-	30	0	1	1
	332	29222.18385	3	1	+	f	X3Sig-	31	0	1	1
	333	29939.40416	3	1	+	f	X3Sig-	32	0	1	1
	334	30640.77012	3	1	+	f	X3Sig-	33	0	1	1
	335	31326.06927	3	1	+	f	X3Sig-	34	0	1	1
	336	31995.08346	3	1	+	f	X3Sig-	35	0	1	1
	337	32647.5888	3	1	+	f	X3Sig-	36	0	1	1
	338	33283.35566	3	1	+	f	X3Sig-	37	0	1	1
	339	33902.14864	3	1	+	f	X3Sig-	38	0	1	1
	340	34503.72655	3	1	+	f	X3Sig-	39	0	1	1
	341	35087.8424	3	1	+	f	X3Sig-	40	0	1	1
	342	35654.24333	3	1	+	f	X3Sig-	41	0	1	1
	343	36202.67064	3	1	+	f	X3Sig-	42	0	1	1
	344	36732.85971	3	1	+	f	X3Sig-	43	0	1	1
	345	37244.54005	3	1	+	f	X3Sig-	44	0	1	1
	346	37737.43525	3	1	+	f	X3Sig-	45	0	1	1
	347	38211.26301	3	1	+	f	X3Sig-	46	0	1	1
	348	38665.7352	3	1	+	f	X3Sig-	47	0	1	1
	349	39100.55788	3	1	+	f	X3Sig-	48	0	1	1
	350	39515.43141	3	1	+	f	X3Sig-	49	0	1	1
	351	39910.05062	3	1	+	f	X3Sig-	50	0	1	1
	352	40284.10497	3	1	+	f	X3Sig-	51	0	1	1
	353	40637.27885	3	1	+	f	X3Sig-	52	0	1	1
	354	40969.25192	3	1	+	f	X3Sig-	53	0	1	1
	355	41279.69963	3	1	+	f	X3Sig-	54	0	1	1
	356	41568.29383	3	1	+	f	X3Sig-	55	0	1	1
	357	41834.70361	3	1	+	f	X3Sig-	56	0	1	1
	358	42078.59645	3	1	+	f	X3Sig-	57	0	1	1
	359	42299.63963	3	1	+	f	X3Sig-	58	0	1	1
	360	42497.50221	3	1	+	f	X3Sig-	59	0	1	1
	361	42671.85767	3	1	+	f	X3Sig-	60	0	1	1
	362	42822.3875	3	1	+	f	X3Sig-	61	0	1	1
	363	42948.78635	3	1	+	f	X3Sig-	62	0	1	1
	364	43050.76954	3	1	+	f	X3Sig-	63	0	1	1
	365	43128.0848	3	1	+	f	X3Sig-	64	0	1	1
	366	43180.53225	3	1	+	f	X3Sig-	65	0	1	1
	367	43208.39009	3	1	+	f	X3Sig-	66	0	1	1
	368	43223.23459	3	1	+	f	X3Sig-	67	0	1	1
	369	43243.26758	3	1	+	f	X3Sig-	68	0	1	1
	370	43268.84034	3	1	+	f	X3Sig-	69	0	1	1
	371	43299.08228	3	1	+	f	X3Sig-	70	0	1	1
	372	43333.50197	3	1	+	f	X3Sig-	71	0	1	1
	373	43371.76775	3	1	+	f	X3Sig-	72	0	1	1
	374	43413.63489	3	1	+	f	X3Sig-	73	0	1	1
	375	43458.9125	3	1	+	f	X3Sig-	74	0	1	1
	376	43507.44592	3	1	+	f	X3Sig-	75	0	1	1
	377	43559.10623	3	1	+	f	X3Sig-	76	0	1	1
	378	43613.78369	3	1	+	f	X3Sig-	77	0	1	1
	379	43671.38329	3	1	+	f	X3Sig-	78	0	1	1
	380	43731.82161	3	1	+	f	X3Sig-	79	0	1	1
	381	43795.02464	3	1	+	f	X3Sig-	80	0	1	1
	382	43860.92603	3	1	+	f	X3Sig-	81	0	1	1
	383	43929.46584	3	1	+	f	X3Sig-	82	0	1	1
	384	44000.58956	3	1	+	f	X3Sig-	83	0	1	1
	385	44074.2473	3	1	+	f	X3Sig-	84	0	1	1
	386	44148.88275	3	1	+	f	C3Pi	0	1	0	1
	387	44150.39315	3	1	+	f	X3Sig-	85	0	1	1
	388	44151.17284	3	1	+	f	C3Pi	0	1	-1	0
	389	44228.98468	3	1	+	f	X3Sig-	86	0	1	1
	390	44309.98251	3	1	+	f	X3Sig-	87	0	1	1
	391	44393.34992	3	1	+	f	X3Sig-	88	0	1	1
	392	44479.05263	3	1	+	f	X3Sig-	89	0	1	1
	393	44567.05845	3	1	+	f	X3Sig-	90	0	1	1
	394	44657.33713	3	1	+	f	X3Sig-	91	0	1	1
	395	44749.86015	3	1	+	f	X3Sig-	92	0	1	1
	396	44841.54407	3	1	+	f	C3Pi	1	1	-1	0
	397	44843.80707	3	1	+	f	C3Pi	1	1	0	1
	398	44844.60056	3	1	+	f	X3Sig-	93	0	1	1
	399	44941.53284	3	1	+	f	X3Sig-	94	0	1	1
	400	45040.63276	3	1	+	f	X3Sig-	95	0	1	1
	401	45141.87731	3	1	+	f	X3Sig-	96	0	1	1
	402	45245.24458	3	1	+	f	X3Sig-	97	0	1	1
	403	45350.71366	3	1	+	f	X3Sig-	98	0	1	1
	404	45458.26476	3	1	+	f	X3Sig-	99	0	1	1
	405	45519.84072	3	1	+	f	C3Pi	2	1	0	1
	406	45522.06971	3	1	+	f	C3Pi	2	1	-1	0
	407	46181.25659	3	1	+	f	C3Pi	3	1	-1	0
	408	46183.45213	3	1	+	f	C3Pi	3	1	0	1
	409	46825.33175	3	1	+	f	C3Pi	4	1	0	1
	410	46827.49219	3	1	+	f	C3Pi	4	1	-1	0
	411	47450.76679	3	1	+	f	C3Pi	5	1	-1	0
	412	47452.89012	3	1	+	f	C3Pi	5	1	0	1
	413	48054.72377	3	1	+	f	C3Pi	6	1	0	1
	414	48056.80718	3	1	+	f	C3Pi	6	1	-1	0
	415	48634.44304	3	1	+	f	C3Pi	7	1	0	1
	416	48636.48287	3	1	+	f	C3Pi	7	1	-1	0
	417	49187.30946	3	1	+	f	C3Pi	8	1	0	1
	418	49189.3021	3	1	+	f	C3Pi	8	1	-1	0
	419	49711.22667	3	1	+	f	C3Pi	9	1	0	1
	420	49713.16886	3	1	+	f	C3Pi	9	1	-1	0
	421	50205.16776	3	1	+	f	C3Pi	10	1	-1	0
	422	50207.057	3	1	+	f	C3Pi	10	1	0	1
	423	50669.18696	3	1	+	f	C3Pi	11	1	-1	0
	424	50671.0216	3	1	+	f	C3Pi	11	1	0	1
	425	51103.78513	3	1	+	f	C3Pi	12	1	-1	0
	426	51105.56343	3	1	+	f	C3Pi	12	1	0	1
	427	51508.61287	3	1	+	f	C3Pi	13	1	-1	0
	428	51510.33073	3	1	+	f	C3Pi	13	1	0	1
	429	51880.42789	3	1	+	f	C3Pi	14	1	-1	0
	430	51882.07429	3	1	+	f	C3Pi	14	1	0	1
	431	52209.09162	3	1	+	f	C3Pi	15	1	-1	0
	432	52210.63584	3	1	+	f	C3Pi	15	1	0	1
	433	52460.58733	3	1	+	f	C3Pi	16	1	0	1
	434	52461.88018	3	1	+	f	C3Pi	16	1	-1	0
	435	52500.81662	3	1	+	f	C3Pi	17	1	0	1
	436	52501.19947	3	1	+	f	C3Pi	17	1	-1	0
	437	52505.26049	3	1	+	f	C3Pi	18	1	0	1
	438	52505.68143	3	1	+	f	C3Pi	18	1	-1	0
	439	52512.56926	3	1	+	f	C3Pi	19	1	0	1
	440	52513.00671	3	1	+	f	C3Pi	19	1	-1	0
	441	52522.63555	3	1	+	f	C3Pi	20	1	-1	0
	442	52523.08642	3	1	+	f	C3Pi	20	1	0	1
	443	52535.35162	3	1	+	f	C3Pi	21	1	0	1
	444	52535.81507	3	1	+	f	C3Pi	21	1	-1	0
	445	52550.61631	3	1	+	f	C3Pi	22	1	-1	0
	446	52551.09205	3	1	+	f	C3Pi	22	1	0	1
	447	52568.33663	3	1	+	f	C3Pi	23	1	0	1
	448	52568.82454	3	1	+	f	C3Pi	23	1	-1	0
	449	52588.43033	3	1	+	f	C3Pi	24	1	0	1
	450	52588.93019	3	1	+	f	C3Pi	24	1	-1	0
	451	52610.83066	3	1	+	f	C3Pi	25	1	0	1
	452	52611.34191	3	1	+	f	C3Pi	25	1	-1	0
	453	52635.49103	3	1	+	f	C3Pi	26	1	0	1
	454	52636.01267	3	1	+	f	C3Pi	26	1	-1	0
	455	52662.38562	3	1	+	f	C3Pi	27	1	0	1
	456	52662.91629	3	1	+	f	C3Pi	27	1	-1	0
	457	52691.50364	3	1	+	f	C3Pi	28	1	0	1
	458	52692.04187	3	1	+	f	C3Pi	28	1	-1	0
	459	52722.83907	3	1	+	f	C3Pi	29	1	-1	0
	460	52723.38366	3	1	+	f	C3Pi	29	1	0	1
	461	52756.38104	3	1	+	f	C3Pi	30	1	0	1
	462	52756.93119	3	1	+	f	C3Pi	30	1	-1	0
	463	52792.109	3	1	+	f	C3Pi	31	1	-1	0
	464	52792.66435	3	1	+	f	C3Pi	31	1	0	1
	465	52829.99337	3	1	+	f	C3Pi	32	1	0	1
	466	52830.55387	3	1	+	f	C3Pi	32	1	-1	0
	467	52869.99966	3	1	+	f	C3Pi	33	1	-1	0
	468	52870.5654	3	1	+	f	C3Pi	33	1	0	1
	469	52912.09329	3	1	+	f	C3Pi	34	1	0	1
	470	52912.66439	3	1	+	f	C3Pi	34	1	-1	0
	471	52956.24325	3	1	+	f	C3Pi	35	1	0	1
	472	52956.81972	3	1	+	f	C3Pi	35	1	-1	0
	473	53002.42356	3	1	+	f	C3Pi	36	1	-1	0
	474	53003.00536	3	1	+	f	C3Pi	36	1	0	1
	475	53050.61302	3	1	+	f	C3Pi	37	1	-1	0
	476	53051.2	3	1	+	f	C3Pi	37	1	0	1
	601	-1.435939	3	1	-	e	X3Sig-	0	0	-1	-1
	602	2.87185	3	1	-	e	X3Sig-	0	0	0	0
	603	1136.598371	3	1	-	e	X3Sig-	1	0	-1	-1
	604	1140.872019	3	1	-	e	X3Sig-	1	0	0	0
	605	2261.927073	3	1	-	e	X3Sig-	2	0	-1	-1
	606	2266.16662	3	1	-	e	X3Sig-	2	0	0	0
	607	3374.618131	3	1	-	e	X3Sig-	3	0	-1	-1
	608	3378.823606	3	1	-	e	X3Sig-	3	0	0	0
	609	4474.70904	3	1	-	e	X3Sig-	4	0	-1	-1
	610	4478.88046	3	1	-	e	X3Sig-	4	0	0	0
	611	5562.218656	3	1	-	e	X3Sig-	5	0	-1	-1
	612	5566.356021	3	1	-	e	X3Sig-	5	0	0	0
	613	6637.150294	3	1	-	e	X3Sig-	6	0	-1	-1
	614	6641.25359	3	1	-	e	X3Sig-	6	0	0	0
	615	7699.493515	3	1	-	e	X3Sig-	7	0	-1	-1
	616	7703.562705	3	1	-	e	X3Sig-	7	0	0	0
	617	8749.225533	3	1	-	e	X3Sig-	8	0	-1	-1
	618	8753.260566	3	1	-	e	X3Sig-	8	0	0	0
	619	9786.312084	3	1	-	e	X3Sig-	9	0	-1	-1
	620	9790.312887	3	1	-	e	X3Sig-	9	0	0	0
	621	10810.70818	3	1	-	e	X3Sig-	10	0	-1	-1
	622	10814.67466	3	1	-	e	X3Sig-	10	0	0	0
	623	11822.35875	3	1	-	e	X3Sig-	11	0	-1	-1
	624	11826.2908	3	1	-	e	X3Sig-	11	0	0	0
	625	12821.19916	3	1	-	e	X3Sig-	12	0	-1	-1
	626	12825.09663	3	1	-	e	X3Sig-	12	0	0	0
	627	13807.15566	3	1	-	e	X3Sig-	13	0	-1	-1
	628	13811.01842	3	1	-	e	X3Sig-	13	0	0	0
	629	14780.14586	3	1	-	e	X3Sig-	14	0	-1	-1
	630	14783.97372	3	1	-	e	X3Sig-	14	0	0	0
	631	15740.07904	3	1	-	e	X3Sig-	15	0	-1	-1
	632	15743.87179	3	1	-	e	X3Sig-	15	0	0	0
	633	16686.85648	3	1	-	e	X3Sig-	16	0	-1	-1
	634	16690.61392	3	1	-	e	X3Sig-	16	0	0	0
	635	17620.37183	3	1	-	e	X3Sig-	17	0	-1	-1
	636	17624.09371	3	1	-	e	X3Sig-	17	0	0	0
	637	18540.51132	3	1	-	e	X3Sig-	18	0	-1	-1
	638	18544.19737	3	1	-	e	X3Sig-	18	0	0	0
	639	19447.15402	3	1	-	e	X3Sig-	19	0	-1	-1
	640	19450.80395	3	1	-	e	X3Sig-	19	0	0	0
	641	20340.17206	3	1	-	e	X3Sig-	20	0	-1	-1
	642	20343.78555	3	1	-	e	X3Sig-	20	0	0	0
	643	21219.43084	3	1	-	e	X3Sig-	21	0	-1	-1
	644	21223.00756	3	1	-	e	X3Sig-	21	0	0	0
	645	22084.78918	3	1	-	e	X3Sig-	22	0	-1	-1
	646	22088.32877	3	1	-	e	X3Sig-	22	0	0	0
	647	22936.09952	3	1	-	e	X3Sig-	23	0	-1	-1
	648	22939.60158	3	1	-	e	X3Sig-	23	0	0	0
	649	23773.208	3	1	-	e	X3Sig-	24	0	-1	-1
	650	23776.67212	3	1	-	e	X3Sig-	24	0	0	0
	651	24595.95461	3	1	-	e	X3Sig-	25	0	-1	-1
	652	24599.38035	3	1	-	e	X3Sig-	25	0	0	0
	653	25404.17331	3	1	-	e	X3Sig-	26	0	-1	-1
	654	25407.56019	3	1	-	e	X3Sig-	26	0	0	0
	655	26197.69207	3	1	-	e	X3Sig-	27	0	-1	-1
	656	26201.03959	3	1	-	e	X3Sig-	27	0	0	0
	657	26976.33298	3	1	-	e	X3Sig-	28	0	-1	-1
	658	26979.64062	3	1	-	e	X3Sig-	28	0	0	0
	659	27739.91231	3	1	-	e	X3Sig-	29	0	-1	-1
	660	27743.1795	3	1	-	e	X3Sig-	29	0	0	0
	661	28488.24052	3	1	-	e	X3Sig-	30	0	-1	-1
	662	28491.46668	3	1	-	e	X3Sig-	30	0	0	0
	663	29221.12234	3	1	-	e	X3Sig-	31	0	-1	-1
	664	29224.30683	3	1	-	e	X3Sig-	31	0	0	0
	665	29938.35677	3	1	-	e	X3Sig-	32	0	-1	-1
	666	29941.49892	3	1	-	e	X3Sig-	32	0	0	0
	667	30639.73707	3	1	-	e	X3Sig-	33	0	-1	-1
	668	30642.83618	3	1	-	e	X3Sig-	33	0	0	0
	669	31325.05081	3	1	-	e	X3Sig-	34	0	-1	-1
	670	31328.10615	3	1	-	e	X3Sig-	34	0	0	0
	671	31994.07986	3	1	-	e	X3Sig-	35	0	-1	-1
	672	31997.09064	3	1	-	e	X3Sig-	35	0	0	0
	673	32646.60032	3	1	-	e	X3Sig-	36	0	-1	-1
	674	32649.56572	3	1	-	e	X3Sig-	36	0	0	0
	675	33282.3826	3	1	-	e	X3Sig-	37	0	-1	-1
	676	33285.30173	3	1	-	e	X3Sig-	37	0	0	0
	677	33901.19131	3	1	-	e	X3Sig-	38	0	-1	-1
	678	33904.06325	3	1	-	e	X3Sig-	38	0	0	0
	679	34502.78528	3	1	-	e	X3Sig-	39	0	-1	-1
	680	34505.60906	3	1	-	e	X3Sig-	39	0	0	0
	681	35086.91752	3	1	-	e	X3Sig-	40	0	-1	-1
	682	35089.69211	3	1	-	e	X3Sig-	40	0	0	0
	683	35653.33522	3	1	-	e	X3Sig-	41	0	-1	-1
	684	35656.05951	3	1	-	e	X3Sig-	41	0	0	0
	685	36201.77967	3	1	-	e	X3Sig-	42	0	-1	-1
	686	36204.45252	3	1	-	e	X3Sig-	42	0	0	0
	687	36731.98631	3	1	-	e	X3Sig-	43	0	-1	-1
	688	36734.60646	3	1	-	e	X3Sig-	43	0	0	0
	689	37243.68465	3	1	-	e	X3Sig-	44	0	-1	-1
	690	37246.2508	3	1	-	e	X3Sig-	44	0	0	0
	691	37736.59832	3	1	-	e	X3Sig-	45	0	-1	-1
	692	37739.10906	3	1	-	e	X3Sig-	45	0	0	0
	693	38210.44505	3	1	-	e	X3Sig-	46	0	-1	-1
	694	38212.8989	3	1	-	e	X3Sig-	46	0	0	0
	695	38664.93673	3	1	-	e	X3Sig-	47	0	-1	-1
	696	38667.3321	3	1	-	e	X3Sig-	47	0	0	0
	697	39099.77947	3	1	-	e	X3Sig-	48	0	-1	-1
	698	39102.11464	3	1	-	e	X3Sig-	48	0	0	0
	699	39514.67368	3	1	-	e	X3Sig-	49	0	-1	-1
	700	39516.94682	3	1	-	e	X3Sig-	49	0	0	0
	701	39909.31422	3	1	-	e	X3Sig-	50	0	-1	-1
	702	39911.52336	3	1	-	e	X3Sig-	50	0	0	0
	703	40283.39062	3	1	-	e	X3Sig-	51	0	-1	-1
	704	40285.53361	3	1	-	e	X3Sig-	51	0	0	0
	705	40636.58732	3	1	-	e	X3Sig-	52	0	-1	-1
	706	40638.66183	3	1	-	e	X3Sig-	52	0	0	0
	707	40968.58406	3	1	-	e	X3Sig-	53	0	-1	-1
	708	40970.58756	3	1	-	e	X3Sig-	53	0	0	0
	709	41279.05637	3	1	-	e	X3Sig-	54	0	-1	-1
	710	41280.98608	3	1	-	e	X3Sig-	54	0	0	0
	711	41567.67618	3	1	-	e	X3Sig-	55	0	-1	-1
	712	41569.52903	3	1	-	e	X3Sig-	55	0	0	0
	713	41834.11272	3	1	-	e	X3Sig-	56	0	-1	-1
	714	41835.8853	3	1	-	e	X3Sig-	56	0	0	0
	715	42078.0336	3	1	-	e	X3Sig-	57	0	-1	-1
	716	42079.72206	3	1	-	e	X3Sig-	57	0	0	0
	717	42299.10626	3	1	-	e	X3Sig-	58	0	-1	-1
	718	42300.70626	3	1	-	e	X3Sig-	58	0	0	0
	719	42497.00001	3	1	-	e	X3Sig-	59	0	-1	-1
	720	42498.5065	3	1	-	e	X3Sig-	59	0	0	0
	721	42671.38859	3	1	-	e	X3Sig-	60	0	-1	-1
	722	42672.79568	3	1	-	e	X3Sig-	60	0	0	0
	723	42821.95392	3	1	-	e	X3Sig-	61	0	-1	-1
	724	42823.25448	3	1	-	e	X3Sig-	61	0	0	0
	725	42948.39123	3	1	-	e	X3Sig-	62	0	-1	-1
	726	42949.57639	3	1	-	e	X3Sig-	62	0	0	0
	727	43050.41677	3	1	-	e	X3Sig-	63	0	-1	-1
	728	43051.47487	3	1	-	e	X3Sig-	63	0	0	0
	729	43127.77986	3	1	-	e	X3Sig-	64	0	-1	-1
	730	43128.69436	3	1	-	e	X3Sig-	64	0	0	0
	731	43180.28419	3	1	-	e	X3Sig-	65	0	-1	-1
	732	43181.02791	3	1	-	e	X3Sig-	65	0	0	0
	733	43208.21152	3	1	-	e	X3Sig-	66	0	-1	-1
	734	43208.74659	3	1	-	e	X3Sig-	66	0	0	0
	735	43223.06898	3	1	-	e	X3Sig-	67	0	-1	-1
	736	43223.56597	3	1	-	e	X3Sig-	67	0	0	0
	737	43243.08604	3	1	-	e	X3Sig-	68	0	-1	-1
	738	43243.63077	3	1	-	e	X3Sig-	68	0	0	0
	739	43268.64756	3	1	-	e	X3Sig-	69	0	-1	-1
	740	43269.226	3	1	-	e	X3Sig-	69	0	0	0
	741	43298.88041	3	1	-	e	X3Sig-	70	0	-1	-1
	742	43299.4861	3	1	-	e	X3Sig-	70	0	0	0
	743	43333.29233	3	1	-	e	X3Sig-	71	0	-1	-1
	744	43333.92132	3	1	-	e	X3Sig-	71	0	0	0
	745	43371.55124	3	1	-	e	X3Sig-	72	0	-1	-1
	746	43372.20082	3	1	-	e	X3Sig-	72	0	0	0
	747	43413.41219	3	1	-	e	X3Sig-	73	0	-1	-1
	748	43414.08033	3	1	-	e	X3Sig-	73	0	0	0
	749	43458.68413	3	1	-	e	X3Sig-	74	0	-1	-1
	750	43459.36928	3	1	-	e	X3Sig-	74	0	0	0
	751	43507.2123	3	1	-	e	X3Sig-	75	0	-1	-1
	752	43507.9132	3	1	-	e	X3Sig-	75	0	0	0
	753	43558.8677	3	1	-	e	X3Sig-	76	0	-1	-1
	754	43559.58332	3	1	-	e	X3Sig-	76	0	0	0
	755	43613.54055	3	1	-	e	X3Sig-	77	0	-1	-1
	756	43614.27002	3	1	-	e	X3Sig-	77	0	0	0
	757	43671.13577	3	1	-	e	X3Sig-	78	0	-1	-1
	758	43671.87834	3	1	-	e	X3Sig-	78	0	0	0
	759	43731.56995	3	1	-	e	X3Sig-	79	0	-1	-1
	760	43732.32497	3	1	-	e	X3Sig-	79	0	0	0
	761	43794.76902	3	1	-	e	X3Sig-	80	0	-1	-1
	762	43795.53592	3	1	-	e	X3Sig-	80	0	0	0
	763	43860.66662	3	1	-	e	X3Sig-	81	0	-1	-1
	764	43861.44488	3	1	-	e	X3Sig-	81	0	0	0
	765	43929.20279	3	1	-	e	X3Sig-	82	0	-1	-1
	766	43929.99197	3	1	-	e	X3Sig-	82	0	0	0
	767	44000.32301	3	1	-	e	X3Sig-	83	0	-1	-1
	768	44001.1227	3	1	-	e	X3Sig-	83	0	0	0
	769	44073.97737	3	1	-	e	X3Sig-	84	0	-1	-1
	770	44074.78719	3	1	-	e	X3Sig-	84	0	0	0
	771	44148.88275	3	1	-	e	C3Pi	0	-1	0	-1
	772	44150.11995	3	1	-	e	X3Sig-	85	0	-1	-1
	773	44150.93957	3	1	-	e	X3Sig-	85	0	0	0
	774	44151.17284	3	1	-	e	C3Pi	0	-1	1	0
	775	44228.70832	3	1	-	e	X3Sig-	86	0	-1	-1
	776	44229.53743	3	1	-	e	X3Sig-	86	0	0	0
	777	44309.70308	3	1	-	e	X3Sig-	87	0	-1	-1
	778	44310.54138	3	1	-	e	X3Sig-	87	0	0	0
	779	44393.06752	3	1	-	e	X3Sig-	88	0	-1	-1
	780	44393.91476	3	1	-	e	X3Sig-	88	0	0	0
	781	44478.76734	3	1	-	e	X3Sig-	89	0	-1	-1
	782	44479.62326	3	1	-	e	X3Sig-	89	0	0	0
	783	44566.77034	3	1	-	e	X3Sig-	90	0	-1	-1
	784	44567.63472	3	1	-	e	X3Sig-	90	0	0	0
	785	44657.04628	3	1	-	e	X3Sig-	91	0	-1	-1
	786	44657.9189	3	1	-	e	X3Sig-	91	0	0	0
	787	44749.56662	3	1	-	e	X3Sig-	92	0	-1	-1
	788	44750.44729	3	1	-	e	X3Sig-	92	0	0	0
	789	44841.54407	3	1	-	e	C3Pi	1	-1	0	-1
	790	44843.80707	3	1	-	e	C3Pi	1	-1	1	0
	791	44844.30441	3	1	-	e	X3Sig-	93	0	-1	-1
	792	44845.19295	3	1	-	e	X3Sig-	93	0	0	0
	793	44941.23413	3	1	-	e	X3Sig-	94	0	-1	-1
	794	44942.13037	3	1	-	e	X3Sig-	94	0	0	0
	795	45040.33155	3	1	-	e	X3Sig-	95	0	-1	-1
	796	45041.23534	3	1	-	e	X3Sig-	95	0	0	0
	797	45141.57364	3	1	-	e	X3Sig-	96	0	-1	-1
	798	45142.48486	3	1	-	e	X3Sig-	96	0	0	0
	799	45244.93849	3	1	-	e	X3Sig-	97	0	-1	-1
	800	45245.85708	3	1	-	e	X3Sig-	97	0	0	0
	801	45350.40519	3	1	-	e	X3Sig-	98	0	-1	-1
	802	45351.33121	3	1	-	e	X3Sig-	98	0	0	0
	803	45457.95375	3	1	-	e	X3Sig-	99	0	-1	-1
	804	45458.88878	3	1	-	e	X3Sig-	99	0	0	0
	805	45519.84072	3	1	-	e	C3Pi	2	-1	1	0
	806	45522.06971	3	1	-	e	C3Pi	2	-1	0	-1
	807	46181.25659	3	1	-	e	C3Pi	3	-1	0	-1
	808	46183.45213	3	1	-	e	C3Pi	3	-1	1	0
	809	46825.33175	3	1	-	e	C3Pi	4	-1	1	0
	810	46827.49219	3	1	-	e	C3Pi	4	-1	0	-1
	811	47450.76679	3	1	-	e	C3Pi	5	-1	1	0
	812	47452.89012	3	1	-	e	C3Pi	5	-1	0	-1
	813	48054.72377	3	1	-	e	C3Pi	6	-1	1	0
	814	48056.80718	3	1	-	e	C3Pi	6	-1	0	-1
	815	48634.44304	3	1	-	e	C3Pi	7	-1	0	-1
	816	48636.48287	3	1	-	e	C3Pi	7	-1	1	0
	817	49187.30946	3	1	-	e	C3Pi	8	-1	1	0
	818	49189.3021	3	1	-	e	C3Pi	8	-1	0	-1
	819	49711.22667	3	1	-	e	C3Pi	9	-1	0	-1
	820	49713.16886	3	1	-	e	C3Pi	9	-1	1	0
	821	50205.16776	3	1	-	e	C3Pi	10	-1	1	0
	822	50207.057	3	1	-	e	C3Pi	10	-1	0	-1
	823	50669.18696	3	1	-	e	C3Pi	11	-1	0	-1
	824	50671.0216	3	1	-	e	C3Pi	11	-1	1	0
	825	51103.78513	3	1	-	e	C3Pi	12	-1	1	0
	826	51105.56343	3	1	-	e	C3Pi	12	-1	0	-1
	827	51508.61287	3	1	-	e	C3Pi	13	-1	1	0
	828	51510.33073	3	1	-	e	C3Pi	13	-1	0	-1
	829	51880.42789	3	1	-	e	C3Pi	14	-1	1	0
	830	51882.07429	3	1	-	e	C3Pi	14	-1	0	-1
	831	52209.09162	3	1	-	e	C3Pi	15	-1	1	0
	832	52210.63584	3	1	-	e	C3Pi	15	-1	0	-1
	833	52460.58733	3	1	-	e	C3Pi	16	-1	0	-1
	834	52461.88018	3	1	-	e	C3Pi	16	-1	1	0
	835	52500.81662	3	1	-	e	C3Pi	17	-1	0	-1
	836	52501.19947	3	1	-	e	C3Pi	17	-1	1	0
	837	52505.26049	3	1	-	e	C3Pi	18	-1	1	0
	838	52505.68143	3	1	-	e	C3Pi	18	-1	0	-1
	839	52512.56926	3	1	-	e	C3Pi	19	-1	0	-1
	840	52513.00671	3	1	-	e	C3Pi	19	-1	1	0
	841	52522.63555	3	1	-	e	C3Pi	20	-1	0	-1
	842	52523.08642	3	1	-	e	C3Pi	20	-1	1	0
	843	52535.35162	3	1	-	e	C3Pi	21	-1	0	-1
	844	52535.81507	3	1	-	e	C3Pi	21	-1	1	0
	845	52550.61631	3	1	-	e	C3Pi	22	-1	1	0
	846	52551.09205	3	1	-	e	C3Pi	22	-1	0	-1
	847	52568.33663	3	1	-	e	C3Pi	23	-1	0	-1
	848	52568.82454	3	1	-	e	C3Pi	23	-1	1	0
	849	52588.43033	3	1	-	e	C3Pi	24	-1	0	-1
	850	52588.93019	3	1	-	e	C3Pi	24	-1	1	0
	851	52610.83066	3	1	-	e	C3Pi	25	-1	1	0
	852	52611.34191	3	1	-	e	C3Pi	25	-1	0	-1
	853	52635.49103	3	1	-	e	C3Pi	26	-1	0	-1
	854	52636.01267	3	1	-	e	C3Pi	26	-1	1	0
	855	52662.38562	3	1	-	e	C3Pi	27	-1	1	0
	856	52662.91629	3	1	-	e	C3Pi	27	-1	0	-1
	857	52691.50364	3	1	-	e	C3Pi	28	-1	0	-1
	858	52692.04187	3	1	-	e	C3Pi	28	-1	1	0
	859	52722.83907	3	1	-	e	C3Pi	29	-1	1	0
	860	52723.38366	3	1	-	e	C3Pi	29	-1	0	-1
	861	52756.38104	3	1	-	e	C3Pi	30	-1	1	0
	862	52756.93119	3	1	-	e	C3Pi	30	-1	0	-1
	863	52792.109	3	1	-	e	C3Pi	31	-1	1	0
	864	52792.66435	3	1	-	e	C3Pi	31	-1	0	-1
	865	52829.99337	3	1	-	e	C3Pi	32	-1	0	-1
	866	52830.55387	3	1	-	e	C3Pi	32	-1	1	0
	867	52869.99966	3	1	-	e	C3Pi	33	-1	1	0
	868	52870.5654	3	1	-	e	C3Pi	33	-1	0	-1
	869	52912.09329	3	1	-	e	C3Pi	34	-1	0	-1
	870	52912.66439	3	1	-	e	C3Pi	34	-1	1	0
	871	52956.24325	3	1	-	e	C3Pi	35	-1	1	0
	872	52956.81972	3	1	-	e	C3Pi	35	-1	0	-1
	873	53002.42356	3	1	-	e	C3Pi	36	-1	1	0
	874	53003.00536	3	1	-	e	C3Pi	36	-1	0	-1
	875	53050.61302	3	1	-	e	C3Pi	37	-1	0	-1
	876	53051.2	3	1	-	e	C3Pi	37	-1	1	0
	1001	0	5	2	+	e	X3Sig-	0	0	1	1
	1002	7.179558	5	2	+	e	X3Sig-	0	0	0	0
	1003	1138.022929	5	2	+	e	X3Sig-	1	0	1	1
	1004	1145.145586	5	2	+	e	X3Sig-	1	0	0	0
	1005	2263.340264	5	2	+	e	X3Sig-	2	0	1	1
	1006	2270.406086	5	2	+	e	X3Sig-	2	0	0	0
	1007	3376.019965	5	2	+	e	X3Sig-	3	0	1	1
	1008	3383.029	5	2	+	e	X3Sig-	3	0	0	0
	1009	4476.099522	5	2	+	e	X3Sig-	4	0	1	1
	1010	4483.051799	5	2	+	e	X3Sig-	4	0	0	0
	1011	5563.597787	5	2	+	e	X3Sig-	5	0	1	1
	1012	5570.493305	5	2	+	e	X3Sig-	5	0	0	0
	1013	6638.518069	5	2	+	e	X3Sig-	6	0	1	1
	1014	6645.356803	5	2	+	e	X3Sig-	6	0	0	0
	1015	7700.849921	5	2	+	e	X3Sig-	7	0	1	1
	1016	7707.631814	5	2	+	e	X3Sig-	7	0	0	0
	1017	8750.570553	5	2	+	e	X3Sig-	8	0	1	1
	1018	8757.295517	5	2	+	e	X3Sig-	8	0	0	0
	1019	9787.645694	5	2	+	e	X3Sig-	9	0	1	1
	1020	9794.313608	5	2	+	e	X3Sig-	9	0	0	0
	1021	10812.03035	5	2	+	e	X3Sig-	10	0	1	1
	1022	10818.64106	5	2	+	e	X3Sig-	10	0	0	0
	1023	11823.66944	5	2	+	e	X3Sig-	11	0	1	1
	1024	11830.22276	5	2	+	e	X3Sig-	11	0	0	0
	1025	12822.49832	5	2	+	e	X3Sig-	12	0	1	1
	1026	12828.99403	5	2	+	e	X3Sig-	12	0	0	0
	1027	13808.44326	5	2	+	e	X3Sig-	13	0	1	1
	1028	13814.88109	5	2	+	e	X3Sig-	13	0	0	0
	1029	14781.42183	5	2	+	e	X3Sig-	14	0	1	1
	1030	14787.80149	5	2	+	e	X3Sig-	14	0	0	0
	1031	15741.3433	5	2	+	e	X3Sig-	15	0	1	1
	1032	15747.66446	5	2	+	e	X3Sig-	15	0	0	0
	1033	16688.10897	5	2	+	e	X3Sig-	16	0	1	1
	1034	16694.37127	5	2	+	e	X3Sig-	16	0	0	0
	1035	17621.61247	5	2	+	e	X3Sig-	17	0	1	1
	1036	17627.8155	5	2	+	e	X3Sig-	17	0	0	0
	1037	18541.74001	5	2	+	e	X3Sig-	18	0	1	1
	1038	18547.88333	5	2	+	e	X3Sig-	18	0	0	0
	1039	19448.37067	5	2	+	e	X3Sig-	19	0	1	1
	1040	19454.45378	5	2	+	e	X3Sig-	19	0	0	0
	1041	20341.37657	5	2	+	e	X3Sig-	20	0	1	1
	1042	20347.39896	5	2	+	e	X3Sig-	20	0	0	0
	1043	21220.62309	5	2	+	e	X3Sig-	21	0	1	1
	1044	21226.58419	5	2	+	e	X3Sig-	21	0	0	0
	1045	22085.96905	5	2	+	e	X3Sig-	22	0	1	1
	1046	22091.86826	5	2	+	e	X3Sig-	22	0	0	0
	1047	22937.26688	5	2	+	e	X3Sig-	23	0	1	1
	1048	22943.10355	5	2	+	e	X3Sig-	23	0	0	0
	1049	23774.36271	5	2	+	e	X3Sig-	24	0	1	1
	1050	23780.13614	5	2	+	e	X3Sig-	24	0	0	0
	1051	24597.09653	5	2	+	e	X3Sig-	25	0	1	1
	1052	24602.80599	5	2	+	e	X3Sig-	25	0	0	0
	1053	25405.30228	5	2	+	e	X3Sig-	26	0	1	1
	1054	25410.94697	5	2	+	e	X3Sig-	26	0	0	0
	1055	26198.80792	5	2	+	e	X3Sig-	27	0	1	1
	1056	26204.38702	5	2	+	e	X3Sig-	27	0	0	0
	1057	26977.43554	5	2	+	e	X3Sig-	28	0	1	1
	1058	26982.94816	5	2	+	e	X3Sig-	28	0	0	0
	1059	27741.00138	5	2	+	e	X3Sig-	29	0	1	1
	1060	27746.4466	5	2	+	e	X3Sig-	29	0	0	0
	1061	28489.31592	5	2	+	e	X3Sig-	30	0	1	1
	1062	28494.69273	5	2	+	e	X3Sig-	30	0	0	0
	1063	29222.18385	5	2	+	e	X3Sig-	31	0	1	1
	1064	29227.49121	5	2	+	e	X3Sig-	31	0	0	0
	1065	29939.40416	5	2	+	e	X3Sig-	32	0	1	1
	1066	29944.64096	5	2	+	e	X3Sig-	32	0	0	0
	1067	30640.77012	5	2	+	e	X3Sig-	33	0	1	1
	1068	30645.93519	5	2	+	e	X3Sig-	33	0	0	0
	1069	31326.06927	5	2	+	e	X3Sig-	34	0	1	1
	1070	31331.16138	5	2	+	e	X3Sig-	34	0	0	0
	1071	31995.08346	5	2	+	e	X3Sig-	35	0	1	1
	1072	32000.1013	5	2	+	e	X3Sig-	35	0	0	0
	1073	32647.5888	5	2	+	e	X3Sig-	36	0	1	1
	1074	32652.531	5	2	+	e	X3Sig-	36	0	0	0
	1075	33283.35566	5	2	+	e	X3Sig-	37	0	1	1
	1076	33288.22075	5	2	+	e	X3Sig-	37	0	0	0
	1077	33902.14864	5	2	+	e	X3Sig-	38	0	1	1
	1078	33906.93508	5	2	+	e	X3Sig-	38	0	0	0
	1079	34503.72655	5	2	+	e	X3Sig-	39	0	1	1
	1080	34508.43272	5	2	+	e	X3Sig-	39	0	0	0
	1081	35087.8424	5	2	+	e	X3Sig-	40	0	1	1
	1082	35092.46657	5	2	+	e	X3Sig-	40	0	0	0
	1083	35654.24333	5	2	+	e	X3Sig-	41	0	1	1
	1084	35658.78368	5	2	+	e	X3Sig-	41	0	0	0
	1085	36202.67064	5	2	+	e	X3Sig-	42	0	1	1
	1086	36207.12522	5	2	+	e	X3Sig-	42	0	0	0
	1087	36732.85971	5	2	+	e	X3Sig-	43	0	1	1
	1088	36737.22647	5	2	+	e	X3Sig-	43	0	0	0
	1089	37244.54005	5	2	+	e	X3Sig-	44	0	1	1
	1090	37248.8168	5	2	+	e	X3Sig-	44	0	0	0
	1091	37737.43525	5	2	+	e	X3Sig-	45	0	1	1
	1092	37741.61966	5	2	+	e	X3Sig-	45	0	0	0
	1093	38211.26301	5	2	+	e	X3Sig-	46	0	1	1
	1094	38215.3526	5	2	+	e	X3Sig-	46	0	0	0
	1095	38665.7352	5	2	+	e	X3Sig-	47	0	1	1
	1096	38669.7273	5	2	+	e	X3Sig-	47	0	0	0
	1097	39100.55788	5	2	+	e	X3Sig-	48	0	1	1
	1098	39104.44964	5	2	+	e	X3Sig-	48	0	0	0
	1099	39515.43141	5	2	+	e	X3Sig-	49	0	1	1
	1100	39519.21978	5	2	+	e	X3Sig-	49	0	0	0
	1101	39910.05062	5	2	+	e	X3Sig-	50	0	1	1
	1102	39913.7323	5	2	+	e	X3Sig-	50	0	0	0
	1103	40284.10497	5	2	+	e	X3Sig-	51	0	1	1
	1104	40287.67639	5	2	+	e	X3Sig-	51	0	0	0
	1105	40637.27885	5	2	+	e	X3Sig-	52	0	1	1
	1106	40640.73613	5	2	+	e	X3Sig-	52	0	0	0
	1107	40969.25192	5	2	+	e	X3Sig-	53	0	1	1
	1108	40972.59084	5	2	+	e	X3Sig-	53	0	0	0
	1109	41279.69963	5	2	+	e	X3Sig-	54	0	1	1